GROningen MAchine for Chemical Simulation
   39
    1ZIL     O1    1  -0.601  -0.138   0.121
    1ZIL     S1    2  -0.481  -0.056   0.123
    1ZIL     C1    3  -0.354  -0.170   0.075
    1ZIL     C2    4  -0.223  -0.101   0.038
    1ZIL     C3    5  -0.179   0.005   0.138
    1ZIL     N1    6  -0.044   0.054   0.104
    1ZIL     C4    7   0.068   0.017   0.166
    1ZIL     N2    8   0.170   0.084   0.109
    1ZIL     C5    9   0.311   0.070   0.145
    1ZIL     C6   10   0.389  -0.014   0.043
    1ZIL     O2   11   0.401   0.059  -0.080
    1ZIL     C7   12   0.473  -0.016  -0.178
    1ZIL     C8   13   0.488   0.068  -0.305
    1ZIL     O3   14   0.565   0.001  -0.404
    1ZIL     C9   15   0.488  -0.088  -0.484
    1ZIL    C10   16   0.119   0.168   0.010
    1ZIL    C11   17  -0.016   0.150   0.008
    1ZIL     O4   18  -0.435  -0.014   0.255
    1ZIL     O5   19  -0.471   0.046   0.019
    1ZIL     H1   20  -0.391  -0.228  -0.011
    1ZIL     H2   21  -0.339  -0.240   0.159
    1ZIL     H3   22  -0.234  -0.054  -0.061
    1ZIL     H4   23  -0.145  -0.177   0.026
    1ZIL     H5   24  -0.174  -0.036   0.240
    1ZIL     H6   25  -0.244   0.093   0.139
    1ZIL     H7   26   0.076  -0.055   0.247
    1ZIL     H8   27   0.353   0.171   0.152
    1ZIL     H9   28   0.316   0.023   0.244
    1ZIL    H10   29   0.337  -0.109   0.024
    1ZIL    H11   30   0.489  -0.035   0.082
    1ZIL    H12   31   0.420  -0.109  -0.200
    1ZIL    H13   32   0.572  -0.043  -0.140
    1ZIL    H14   33   0.541   0.161  -0.280
    1ZIL    H15   34   0.391   0.099  -0.344
    1ZIL    H16   35   0.444  -0.167  -0.423
    1ZIL    H17   36   0.554  -0.134  -0.558
    1ZIL    H18   37   0.410  -0.033  -0.537
    1ZIL    H19   38   0.187   0.230  -0.046
    1ZIL    H20   39  -0.097   0.191  -0.049
   1.67379   0.96956   1.31225
