GROningen MAchine for Chemical Simulation
   39
    1ZIL     O1    1   0.278  -0.390  -0.119
    1ZIL     S1    2   0.210  -0.398  -0.247
    1ZIL     C1    3   0.041  -0.424  -0.199
    1ZIL     C2    4  -0.004  -0.332  -0.087
    1ZIL     C3    5   0.035  -0.185  -0.109
    1ZIL     N1    6  -0.029  -0.100  -0.008
    1ZIL     C4    7  -0.132  -0.017  -0.032
    1ZIL     N2    8  -0.159   0.048   0.082
    1ZIL     C5    9  -0.264   0.150   0.098
    1ZIL     C6   10  -0.206   0.292   0.106
    1ZIL     O2   11  -0.138   0.308   0.231
    1ZIL     C7   12  -0.068   0.432   0.242
    1ZIL     C8   13  -0.161   0.551   0.268
    1ZIL     O3   14  -0.090   0.670   0.300
    1ZIL     C9   15  -0.035   0.735   0.186
    1ZIL    C10   16  -0.071   0.006   0.181
    1ZIL    C11   17   0.012  -0.086   0.124
    1ZIL     O4   18   0.201  -0.270  -0.319
    1ZIL     O5   19   0.240  -0.514  -0.330
    1ZIL     H1   20   0.032  -0.529  -0.167
    1ZIL     H2   21  -0.021  -0.411  -0.289
    1ZIL     H3   22   0.040  -0.366   0.008
    1ZIL     H4   23  -0.112  -0.341  -0.075
    1ZIL     H5   24   0.142  -0.168  -0.099
    1ZIL     H6   25   0.001  -0.151  -0.207
    1ZIL     H7   26  -0.182  -0.005  -0.127
    1ZIL     H8   27  -0.332   0.142   0.013
    1ZIL     H9   28  -0.320   0.126   0.189
    1ZIL    H10   29  -0.288   0.364   0.099
    1ZIL    H11   30  -0.136   0.308   0.023
    1ZIL    H12   31   0.002   0.423   0.325
    1ZIL    H13   32  -0.006   0.449   0.152
    1ZIL    H14   33  -0.229   0.569   0.184
    1ZIL    H15   34  -0.225   0.527   0.354
    1ZIL    H16   35  -0.114   0.761   0.115
    1ZIL    H17   36   0.012   0.828   0.219
    1ZIL    H18   37   0.041   0.673   0.138
    1ZIL    H19   38  -0.078   0.049   0.280
    1ZIL    H20   39   0.095  -0.145   0.159
   1.11005   1.85656   1.18393
