GROningen MAchine for Chemical Simulation
   33
    1CAT     C1    1  -0.167   0.292   0.305
    1CAT     C2    2  -0.040   0.339   0.238
    1CAT     N1    3   0.007   0.240   0.140
    1CAT     C3    4  -0.031   0.236   0.012
    1CAT     N2    5   0.032   0.133  -0.046
    1CAT     C4    6   0.017   0.092  -0.188
    1CAT     C5    7  -0.050  -0.045  -0.201
    1CAT     O1    8   0.040  -0.144  -0.150
    1CAT     C6    9  -0.019  -0.274  -0.142
    1CAT     C7   10   0.074  -0.363  -0.057
    1CAT     O2   11   0.079  -0.316   0.078
    1CAT     C8   12  -0.020  -0.376   0.161
    1CAT     C9   13   0.114   0.071   0.047
    1CAT    C10   14   0.098   0.138   0.165
    1CAT     H1   15  -0.246   0.276   0.231
    1CAT     H2   16  -0.202   0.367   0.377
    1CAT     H3   17  -0.151   0.198   0.358
    1CAT     H4   18  -0.057   0.434   0.185
    1CAT     H5   19   0.039   0.355   0.312
    1CAT     H6   20  -0.101   0.303  -0.036
    1CAT     H7   21  -0.043   0.168  -0.239
    1CAT     H8   22   0.117   0.092  -0.232
    1CAT     H9   23  -0.143  -0.047  -0.145
    1CAT    H10   24  -0.070  -0.067  -0.307
    1CAT    H11   25  -0.118  -0.267  -0.095
    1CAT    H12   26  -0.029  -0.315  -0.243
    1CAT    H13   27   0.043  -0.468  -0.061
    1CAT    H14   28   0.176  -0.356  -0.097
    1CAT    H15   29  -0.011  -0.334   0.261
    1CAT    H16   30  -0.004  -0.484   0.167
    1CAT    H17   31  -0.120  -0.355   0.123
    1CAT    H18   32   0.174  -0.014   0.018
    1CAT    H19   33   0.139   0.127   0.263
   0.92240   1.41770   1.18410
