; GAFF2 molecule parameters exported by ParmEd

[ moleculetype ]
; Name            nrexcl
ANI          3

[ atoms ]
;   nr       type  resnr residue  atom   cgnr    charge       mass  typeB    chargeB      massB
; residue    1 ANI rtp ANI q -1.0
    1         c3      1    ANI     C1      1 -0.33442500  12.010000   ; qtot -0.334425
    2         s6      1    ANI     S1      2 1.42767500  32.060000   ; qtot 1.093250
    3          o      1    ANI     O1      3 -0.75832500  16.000000   ; qtot 0.334925
    4          o      1    ANI     O2      4 -0.75832500  16.000000   ; qtot -0.423400
    5          o      1    ANI     O3      5 -0.75832500  16.000000   ; qtot -1.181725
    6         h1      1    ANI     H1      6 0.06057500   1.008000   ; qtot -1.121150
    7         h1      1    ANI     H2      7 0.06057500   1.008000   ; qtot -1.060575
    8         h1      1    ANI     H3      8 0.06057500   1.008000   ; qtot -1.000000

[ bonds ]
;    ai     aj funct         c0         c1         c2         c3
      1      2     1   0.18127 166088.064000
      2      3     1   0.14657 514205.232000
      2      4     1   0.14657 514205.232000
      2      5     1   0.14657 514205.232000
      1      6     1   0.10969 288043.296000
      1      7     1   0.10969 288043.296000
      1      8     1   0.10969 288043.296000

[ pairs ]
;    ai     aj funct         c0         c1         c2         c3
      6      3     1
      7      3     1
      8      3     1
      6      4     1
      7      4     1
      8      4     1
      6      5     1
      7      5     1
      8      5     1

[ angles ]
;    ai     aj     ak funct         c0         c1         c2         c3
      1      2      3     1   108.5100463 997.967680
      1      2      4     1   108.5100463 997.967680
      1      2      5     1   108.5100463 997.967680
      3      2      4     1   120.2100513 1326.328000
      3      2      5     1   120.2100513 1326.328000
      4      2      5     1   120.2100513 1326.328000
      2      1      6     1   107.0700458 360.660800
      2      1      7     1   107.0700458 360.660800
      2      1      8     1   107.0700458 360.660800
      6      1      7     1   108.5500468 298.235520
      6      1      8     1   108.5500468 298.235520
      7      1      8     1   108.5500468 298.235520

[ dihedrals ]
;    ai     aj     ak     al funct         c0         c1         c2         c3         c4         c5
      6      1      2      3     1  0.0000000  0.6043556  3
      7      1      2      3     1  0.0000000  0.6043556  3
      8      1      2      3     1  0.0000000  0.6043556  3
      6      1      2      4     1  0.0000000  0.6043556  3
      7      1      2      4     1  0.0000000  0.6043556  3
      8      1      2      4     1  0.0000000  0.6043556  3
      6      1      2      5     1  0.0000000  0.6043556  3
      7      1      2      5     1  0.0000000  0.6043556  3
      8      1      2      5     1  0.0000000  0.6043556  3
