; De-duplicated GAFF2 atom types from independent CAT and ANI parameterizations.

[ atomtypes ]
; name at.num mass charge ptype sigma epsilon
c3 6 12.010000 0.00000000 A 0.33977095 0.4510352
cc 6 12.010000 0.00000000 A 0.33152123 0.4133792
cd 6 12.010000 0.00000000 A 0.33152123 0.4133792
h1 1 1.008000 0.00000000 A 0.24219973 0.0870272
h4 1 1.008000 0.00000000 A 0.25363887 0.0673624
h5 1 1.008000 0.00000000 A 0.24472988 0.0673624
hc 1 1.008000 0.00000000 A 0.2600177 0.0870272
na 7 14.010000 0.00000000 A 0.32058099 0.8543728
o 8 16.000000 0.00000000 A 0.30481209 0.6121192
os 8 16.000000 0.00000000 A 0.31560978 0.3037584
s6 16 32.060000 0.00000000 A 0.40584 0.2568976
