; GAFF2 molecule parameters exported by ParmEd

[ moleculetype ]
; Name            nrexcl
CAT          3

[ atoms ]
;   nr       type  resnr residue  atom   cgnr    charge       mass  typeB    chargeB      massB
; residue    1 CAT rtp CAT q 1.0
    1         c3      1    CAT     C1      1 -0.12510000  12.010000   ; qtot -0.125100
    2         c3      1    CAT     C2      2 0.01930000  12.010000   ; qtot -0.105800
    3         na      1    CAT     N1      3 -0.01610000  14.010000   ; qtot -0.121900
    4         cc      1    CAT     C3      4 -0.05460000  12.010000   ; qtot -0.176500
    5         na      1    CAT     N2      5 -0.01810000  14.010000   ; qtot -0.194600
    6         c3      1    CAT     C4      6 0.01430000  12.010000   ; qtot -0.180300
    7         c3      1    CAT     C5      7 0.11940000  12.010000   ; qtot -0.060900
    8         os      1    CAT     O1      8 -0.44160000  16.000000   ; qtot -0.502500
    9         c3      1    CAT     C6      9 0.09740000  12.010000   ; qtot -0.405100
   10         c3      1    CAT     C7     10 0.11240000  12.010000   ; qtot -0.292700
   11         os      1    CAT     O2     11 -0.44560000  16.000000   ; qtot -0.738300
   12         c3      1    CAT     C8     12 0.10970000  12.010000   ; qtot -0.628600
   13         cc      1    CAT     C9     13 -0.09330000  12.010000   ; qtot -0.721900
   14         cd      1    CAT    C10     14 -0.13930000  12.010000   ; qtot -0.861200
   15         hc      1    CAT     H1     15 0.07003300   1.008000   ; qtot -0.791167
   16         hc      1    CAT     H2     16 0.07003300   1.008000   ; qtot -0.721134
   17         hc      1    CAT     H3     17 0.07003300   1.008000   ; qtot -0.651101
   18         h1      1    CAT     H4     18 0.09220000   1.008000   ; qtot -0.558901
   19         h1      1    CAT     H5     19 0.09220000   1.008000   ; qtot -0.466701
   20         h5      1    CAT     H6     20 0.24900000   1.008000   ; qtot -0.217701
   21         h1      1    CAT     H7     21 0.09920000   1.008000   ; qtot -0.118501
   22         h1      1    CAT     H8     22 0.09920000   1.008000   ; qtot -0.019301
   23         h1      1    CAT     H9     23 0.06520000   1.008000   ; qtot 0.045899
   24         h1      1    CAT    H10     24 0.06520000   1.008000   ; qtot 0.111099
   25         h1      1    CAT    H11     25 0.05570000   1.008000   ; qtot 0.166799
   26         h1      1    CAT    H12     26 0.05570000   1.008000   ; qtot 0.222499
   27         h1      1    CAT    H13     27 0.07520000   1.008000   ; qtot 0.297699
   28         h1      1    CAT    H14     28 0.07520000   1.008000   ; qtot 0.372899
   29         h1      1    CAT    H15     29 0.04270000   1.008000   ; qtot 0.415599
   30         h1      1    CAT    H16     30 0.04270000   1.008000   ; qtot 0.458299
   31         h1      1    CAT    H17     31 0.04270000   1.008000   ; qtot 0.500999
   32         h4      1    CAT    H18     32 0.27000000   1.008000   ; qtot 0.770999
   33         h4      1    CAT    H19     33 0.22900000   1.008000   ; qtot 0.999999

[ bonds ]
;    ai     aj funct         c0         c1         c2         c3
      1      2     1   0.15354 191535.152000
      2      3     1   0.14639 213208.272000
      3      4     1   0.13803 280746.400000
      3     14     1   0.13830 278194.160000
      4      5     1   0.13803 280746.400000
      5      6     1   0.14639 213208.272000
      5     13     1   0.13803 280746.400000
      6      7     1   0.15354 191535.152000
      7      8     1   0.14273 236203.536000
      8      9     1   0.14273 236203.536000
      9     10     1   0.15354 191535.152000
     10     11     1   0.14273 236203.536000
     11     12     1   0.14273 236203.536000
     13     14     1   0.13730 323205.632000
      1     15     1   0.10962 288905.200000
      1     16     1   0.10962 288905.200000
      1     17     1   0.10962 288905.200000
      2     18     1   0.10969 288043.296000
      2     19     1   0.10969 288043.296000
      4     20     1   0.10820 307080.496000
      6     21     1   0.10969 288043.296000
      6     22     1   0.10969 288043.296000
      7     23     1   0.10969 288043.296000
      7     24     1   0.10969 288043.296000
      9     25     1   0.10969 288043.296000
      9     26     1   0.10969 288043.296000
     10     27     1   0.10969 288043.296000
     10     28     1   0.10969 288043.296000
     12     29     1   0.10969 288043.296000
     12     30     1   0.10969 288043.296000
     12     31     1   0.10969 288043.296000
     13     32     1   0.10809 308544.896000
     14     33     1   0.10818 307348.272000

[ pairs ]
;    ai     aj funct         c0         c1         c2         c3
      1      4     1
      1     14     1
      2      5     1
      2     13     1
      3      6     1
      4      7     1
      5      8     1
      6     14     1
      6      9     1
      7     13     1
      7     10     1
      8     11     1
      9     12     1
      2     20     1
      2     33     1
     15      3     1
     16      3     1
     17      3     1
      3     32     1
      4     18     1
      4     19     1
      4     33     1
      4     21     1
      4     22     1
      4     32     1
      5     23     1
      5     24     1
      5     33     1
      6     20     1
      6     32     1
      7     25     1
      7     26     1
      8     21     1
      8     22     1
      8     27     1
      8     28     1
      9     23     1
      9     24     1
     10     29     1
     10     30     1
     10     31     1
     11     25     1
     11     26     1
     12     27     1
     12     28     1
     13     20     1
     13     21     1
     13     22     1
     14     18     1
     14     19     1
     14     20     1
     15     18     1
     15     19     1
     16     18     1
     16     19     1
     17     18     1
     17     19     1
     21     23     1
     21     24     1
     22     23     1
     22     24     1
     25     27     1
     25     28     1
     26     27     1
     26     28     1
     32     33     1

[ angles ]
;    ai     aj     ak funct         c0         c1         c2         c3
      1      2      3     1   112.6300483 543.920000
      2      3      4     1   126.6500546 629.357280
      2      3     14     1   125.5000538 631.700320
      3      4      5     1   109.3600470 637.306880
      3     14     13     1   108.9900469 602.412320
      4      3     14     1   120.2100513 666.009120
      4      5      6     1   126.6500546 629.357280
      4      5     13     1   110.4800471 695.464480
      5      6      7     1   112.6300483 543.920000
      5     13     14     1   106.7500460 609.274080
      6      5     13     1   126.6500546 629.357280
      6      7      8     1   107.6200464 648.017920
      7      8      9     1   113.6000487 739.145440
      8      9     10     1   107.6200464 648.017920
      9     10     11     1   107.6200464 648.017920
     10     11     12     1   113.6000487 739.145440
      1      2     18     1   109.5900471 362.167040
      1      2     19     1   109.5900471 362.167040
      2      1     15     1   109.6800468 362.083360
      2      1     16     1   109.6800468 362.083360
      2      1     17     1   109.6800468 362.083360
      3      2     18     1   108.7600467 402.500800
      3      2     19     1   108.7600467 402.500800
      3      4     20     1   121.7800520 400.241440
      3     14     33     1   120.1700514 402.333440
      5      4     20     1   121.7800520 400.241440
      5      6     21     1   108.7600467 402.500800
      5      6     22     1   108.7600467 402.500800
      5     13     32     1   121.0100517 401.580320
      6      7     23     1   109.5900471 362.167040
      6      7     24     1   109.5900471 362.167040
      7      6     21     1   109.5900471 362.167040
      7      6     22     1   109.5900471 362.167040
      8      7     23     1   110.3400472 470.281600
      8      7     24     1   110.3400472 470.281600
      8      9     25     1   110.3400472 470.281600
      8      9     26     1   110.3400472 470.281600
      9     10     27     1   109.5900471 362.167040
      9     10     28     1   109.5900471 362.167040
     10      9     25     1   109.5900471 362.167040
     10      9     26     1   109.5900471 362.167040
     11     10     27     1   110.3400472 470.281600
     11     10     28     1   110.3400472 470.281600
     11     12     29     1   110.3400472 470.281600
     11     12     30     1   110.3400472 470.281600
     11     12     31     1   110.3400472 470.281600
     13     14     33     1   127.6400546 369.865600
     14     13     32     1   129.1100552 367.773600
     15      1     16     1   107.7300462 299.574400
     15      1     17     1   107.7300462 299.574400
     16      1     17     1   107.7300462 299.574400
     18      2     19     1   108.5500468 298.235520
     21      6     22     1   108.5500468 298.235520
     23      7     24     1   108.5500468 298.235520
     25      9     26     1   108.5500468 298.235520
     27     10     28     1   108.5500468 298.235520
     29     12     30     1   108.5500468 298.235520
     29     12     31     1   108.5500468 298.235520
     30     12     31     1   108.5500468 298.235520

[ dihedrals ]
;    ai     aj     ak     al funct         c0         c1         c2         c3         c4         c5
      1      2      3      4     1  0.0000000  0.0000000  2
      1      2      3     14     1  0.0000000  0.0000000  2
      2      3      4      5     1  180.0000771  7.1128000  2
      2      3     14     13     1  180.0000771  7.1128000  2
      3      4      5      6     1  180.0000771  7.1128000  2
      3      4      5     13     1  180.0000771  7.1128000  2
      3     14     13      5     1  180.0000771  16.7360000  2
      4      3     14     13     1  180.0000771  7.1128000  2
      4      5      6      7     1  0.0000000  0.0000000  2
      4      5     13     14     1  180.0000771  7.1128000  2
      5      4      3     14     1  180.0000771  7.1128000  2
      5      6      7      8     1  0.0000000  0.6508444  3
      6      5     13     14     1  180.0000771  7.1128000  2
      6      7      8      9     1  180.0000771  3.6819200  1
      6      7      8      9     1  0.0000000  0.3347200  2
      6      7      8      9     1  0.0000000  3.1380000  3
      7      6      5     13     1  0.0000000  0.0000000  2
      7      8      9     10     1  180.0000771  3.6819200  1
      7      8      9     10     1  0.0000000  0.3347200  2
      7      8      9     10     1  0.0000000  3.1380000  3
      8      9     10     11     1  0.0000000  0.7531200  1
      8      9     10     11     1  0.0000000  3.7656000  2
      8      9     10     11     1  0.0000000  2.0920000  3
      9     10     11     12     1  180.0000771  3.6819200  1
      9     10     11     12     1  0.0000000  0.3347200  2
      9     10     11     12     1  0.0000000  3.1380000  3
      2      4      3     14     4  180.0000771  4.6024000  2
      6      4      5     13     4  180.0000771  4.6024000  2
      2      3      4     20     1  180.0000771  7.1128000  2
      2      3     14     33     1  180.0000771  7.1128000  2
     15      1      2      3     1  0.0000000  0.6508444  3
     16      1      2      3     1  0.0000000  0.6508444  3
     17      1      2      3     1  0.0000000  0.6508444  3
      3     14     13     32     1  180.0000771  16.7360000  2
      4      3      2     18     1  0.0000000  0.0000000  2
      4      3      2     19     1  0.0000000  0.0000000  2
      4      3     14     33     1  180.0000771  7.1128000  2
      4      5      6     21     1  0.0000000  0.0000000  2
      4      5      6     22     1  0.0000000  0.0000000  2
      4      5     13     32     1  180.0000771  7.1128000  2
      5      6      7     23     1  0.0000000  0.6508444  3
      5      6      7     24     1  0.0000000  0.6508444  3
      5     13     14     33     1  180.0000771  16.7360000  2
      6      5      4     20     1  180.0000771  7.1128000  2
      6      5     13     32     1  180.0000771  7.1128000  2
      7      8      9     25     1  0.0000000  1.4100080  3
      7      8      9     26     1  0.0000000  1.4100080  3
      8      7      6     21     1  0.0000000  1.0460000  1
      8      7      6     21     1  0.0000000  0.0000000  3
      8      7      6     22     1  0.0000000  1.0460000  1
      8      7      6     22     1  0.0000000  0.0000000  3
      8      9     10     27     1  0.0000000  1.0460000  1
      8      9     10     27     1  0.0000000  0.0000000  3
      8      9     10     28     1  0.0000000  1.0460000  1
      8      9     10     28     1  0.0000000  0.0000000  3
      9      8      7     23     1  0.0000000  1.4100080  3
      9      8      7     24     1  0.0000000  1.4100080  3
     10     11     12     29     1  0.0000000  1.4100080  3
     10     11     12     30     1  0.0000000  1.4100080  3
     10     11     12     31     1  0.0000000  1.4100080  3
     11     10      9     25     1  0.0000000  1.0460000  1
     11     10      9     25     1  0.0000000  0.0000000  3
     11     10      9     26     1  0.0000000  1.0460000  1
     11     10      9     26     1  0.0000000  0.0000000  3
     12     11     10     27     1  0.0000000  1.4100080  3
     12     11     10     28     1  0.0000000  1.4100080  3
     13      5      4     20     1  180.0000771  7.1128000  2
     13      5      6     21     1  0.0000000  0.0000000  2
     13      5      6     22     1  0.0000000  0.0000000  2
     14      3      2     18     1  0.0000000  0.0000000  2
     14      3      2     19     1  0.0000000  0.0000000  2
     14      3      4     20     1  180.0000771  7.1128000  2
     15      1      2     18     1  0.0000000  0.6508444  3
     15      1      2     19     1  0.0000000  0.6508444  3
     16      1      2     18     1  0.0000000  0.6508444  3
     16      1      2     19     1  0.0000000  0.6508444  3
     17      1      2     18     1  0.0000000  0.6508444  3
     17      1      2     19     1  0.0000000  0.6508444  3
     21      6      7     23     1  0.0000000  0.6508444  3
     21      6      7     24     1  0.0000000  0.6508444  3
     22      6      7     23     1  0.0000000  0.6508444  3
     22      6      7     24     1  0.0000000  0.6508444  3
     25      9     10     27     1  0.0000000  0.6508444  3
     25      9     10     28     1  0.0000000  0.6508444  3
     26      9     10     27     1  0.0000000  0.6508444  3
     26      9     10     28     1  0.0000000  0.6508444  3
     32     13     14     33     1  180.0000771  16.7360000  2
     20      3      4      5     4  180.0000771  4.6024000  2
     14     32     13      5     4  180.0000771  4.6024000  2
     13     33     14      3     4  180.0000771  4.6024000  2
