; GAFF2 parameters generated by AmberTools and converted by ParmEd.
; The [ defaults ] section is supplied by amber14sb.ff/forcefield.itp.

[ atomtypes ]
; name    at.num    mass    charge ptype  sigma      epsilon
o              8  16.000000  0.00000000  A     0.30481209      0.6121192
s6            16  32.060000  0.00000000  A        0.40584      0.2568976
c3             6  12.010000  0.00000000  A     0.33977095      0.4510352
na             7  14.010000  0.00000000  A     0.32058099      0.8543728
cc             6  12.010000  0.00000000  A     0.33152123      0.4133792
os             8  16.000000  0.00000000  A     0.31560978      0.3037584
cd             6  12.010000  0.00000000  A     0.33152123      0.4133792
h1             1   1.008000  0.00000000  A     0.24219973      0.0870272
hc             1   1.008000  0.00000000  A      0.2600177      0.0870272
h5             1   1.008000  0.00000000  A     0.24472988      0.0673624
h4             1   1.008000  0.00000000  A     0.25363887      0.0673624


[ moleculetype ]
; Name            nrexcl
ZIL          3

[ atoms ]
;   nr       type  resnr residue  atom   cgnr    charge       mass  typeB    chargeB      massB
; residue    1 ZIL rtp ZIL q 0.0
    1          o      1    ZIL     O1      1 -0.74943000  16.000000   ; qtot -0.749430
    2         s6      1    ZIL     S1      2 1.43590300  32.060000   ; qtot 0.686473
    3         c3      1    ZIL     C1      3 -0.31549700  12.010000   ; qtot 0.370976
    4         c3      1    ZIL     C2      4 -0.05029700  12.010000   ; qtot 0.320679
    5         c3      1    ZIL     C3      5 0.03440300  12.010000   ; qtot 0.355082
    6         na      1    ZIL     N1      6 -0.05899700  14.010000   ; qtot 0.296085
    7         cc      1    ZIL     C4      7 0.09650300  12.010000   ; qtot 0.392588
    8         na      1    ZIL     N2      8 -0.04799700  14.010000   ; qtot 0.344591
    9         c3      1    ZIL     C5      9 0.02340300  12.010000   ; qtot 0.367994
   10         c3      1    ZIL     C6     10 0.09950300  12.010000   ; qtot 0.467497
   11         os      1    ZIL     O2     11 -0.44049700  16.000000   ; qtot 0.027000
   12         c3      1    ZIL     C7     12 0.07450300  12.010000   ; qtot 0.101503
   13         c3      1    ZIL     C8     13 0.10450300  12.010000   ; qtot 0.206006
   14         os      1    ZIL     O3     14 -0.42349700  16.000000   ; qtot -0.217491
   15         c3      1    ZIL     C9     15 0.09180300  12.010000   ; qtot -0.125688
   16         cc      1    ZIL    C10     16 -0.11819700  12.010000   ; qtot -0.243885
   17         cd      1    ZIL    C11     17 -0.13919700  12.010000   ; qtot -0.383082
   18          o      1    ZIL     O4     18 -0.74943000  16.000000   ; qtot -1.132512
   19          o      1    ZIL     O5     19 -0.74943000  16.000000   ; qtot -1.881942
   20         h1      1    ZIL     H1     20 0.08730300   1.008000   ; qtot -1.794639
   21         h1      1    ZIL     H2     21 0.08730300   1.008000   ; qtot -1.707336
   22         hc      1    ZIL     H3     22 0.06580300   1.008000   ; qtot -1.641533
   23         hc      1    ZIL     H4     23 0.06580300   1.008000   ; qtot -1.575730
   24         h1      1    ZIL     H5     24 0.07080300   1.008000   ; qtot -1.504927
   25         h1      1    ZIL     H6     25 0.07080300   1.008000   ; qtot -1.434124
   26         h5      1    ZIL     H7     26 0.27710300   1.008000   ; qtot -1.157021
   27         h1      1    ZIL     H8     27 0.07930300   1.008000   ; qtot -1.077718
   28         h1      1    ZIL     H9     28 0.07930300   1.008000   ; qtot -0.998415
   29         h1      1    ZIL    H10     29 0.08380300   1.008000   ; qtot -0.914612
   30         h1      1    ZIL    H11     30 0.08380300   1.008000   ; qtot -0.830809
   31         h1      1    ZIL    H12     31 0.08180300   1.008000   ; qtot -0.749006
   32         h1      1    ZIL    H13     32 0.08180300   1.008000   ; qtot -0.667203
   33         h1      1    ZIL    H14     33 0.04680300   1.008000   ; qtot -0.620400
   34         h1      1    ZIL    H15     34 0.04680300   1.008000   ; qtot -0.573597
   35         h1      1    ZIL    H16     35 0.04913600   1.008000   ; qtot -0.524461
   36         h1      1    ZIL    H17     36 0.04913600   1.008000   ; qtot -0.475325
   37         h1      1    ZIL    H18     37 0.04913600   1.008000   ; qtot -0.426189
   38         h4      1    ZIL    H19     38 0.21810300   1.008000   ; qtot -0.208086
   39         h4      1    ZIL    H20     39 0.20810300   1.008000   ; qtot 0.000017

[ bonds ]
;    ai     aj funct         c0         c1         c2         c3
      1      2     1   0.14657 514205.232000
      2      3     1   0.18127 166088.064000
      2     18     1   0.14657 514205.232000
      2     19     1   0.14657 514205.232000
      3      4     1   0.15354 191535.152000
      4      5     1   0.15354 191535.152000
      5      6     1   0.14639 213208.272000
      6      7     1   0.13803 280746.400000
      6     17     1   0.13830 278194.160000
      7      8     1   0.13803 280746.400000
      8      9     1   0.14639 213208.272000
      8     16     1   0.13803 280746.400000
      9     10     1   0.15354 191535.152000
     10     11     1   0.14273 236203.536000
     11     12     1   0.14273 236203.536000
     12     13     1   0.15354 191535.152000
     13     14     1   0.14273 236203.536000
     14     15     1   0.14273 236203.536000
     16     17     1   0.13730 323205.632000
      3     20     1   0.10969 288043.296000
      3     21     1   0.10969 288043.296000
      4     22     1   0.10962 288905.200000
      4     23     1   0.10962 288905.200000
      5     24     1   0.10969 288043.296000
      5     25     1   0.10969 288043.296000
      7     26     1   0.10820 307080.496000
      9     27     1   0.10969 288043.296000
      9     28     1   0.10969 288043.296000
     10     29     1   0.10969 288043.296000
     10     30     1   0.10969 288043.296000
     12     31     1   0.10969 288043.296000
     12     32     1   0.10969 288043.296000
     13     33     1   0.10969 288043.296000
     13     34     1   0.10969 288043.296000
     15     35     1   0.10969 288043.296000
     15     36     1   0.10969 288043.296000
     15     37     1   0.10969 288043.296000
     16     38     1   0.10809 308544.896000
     17     39     1   0.10818 307348.272000

[ pairs ]
;    ai     aj funct         c0         c1         c2         c3
      1      4     1
      2      5     1
      3      6     1
      4     18     1
      4     19     1
      4      7     1
      4     17     1
      5      8     1
      5     16     1
      6      9     1
      7     10     1
      8     11     1
      9     17     1
      9     12     1
     10     16     1
     10     13     1
     11     14     1
     12     15     1
      1     20     1
      1     21     1
      2     22     1
      2     23     1
      3     24     1
      3     25     1
      5     20     1
      5     21     1
      5     26     1
      5     39     1
      6     22     1
      6     23     1
      6     38     1
      7     24     1
      7     25     1
      7     39     1
      7     27     1
      7     28     1
      7     38     1
      8     29     1
      8     30     1
      8     39     1
      9     26     1
      9     38     1
     10     31     1
     10     32     1
     11     27     1
     11     28     1
     11     33     1
     11     34     1
     12     29     1
     12     30     1
     13     35     1
     13     36     1
     13     37     1
     14     31     1
     14     32     1
     15     33     1
     15     34     1
     16     26     1
     16     27     1
     16     28     1
     17     24     1
     17     25     1
     17     26     1
     18     20     1
     18     21     1
     19     20     1
     19     21     1
     20     22     1
     20     23     1
     21     22     1
     21     23     1
     22     24     1
     22     25     1
     23     24     1
     23     25     1
     27     29     1
     27     30     1
     28     29     1
     28     30     1
     31     33     1
     31     34     1
     32     33     1
     32     34     1
     38     39     1

[ angles ]
;    ai     aj     ak funct         c0         c1         c2         c3
      1      2      3     1   108.5100463 997.967680
      1      2     18     1   120.2100513 1326.328000
      1      2     19     1   120.2100513 1326.328000
      2      3      4     1   110.5500477 531.451680
      3      2     18     1   108.5100463 997.967680
      3      2     19     1   108.5100463 997.967680
      3      4      5     1   112.6300483 500.992160
      4      5      6     1   112.6300483 543.920000
      5      6      7     1   126.6500546 629.357280
      5      6     17     1   125.5000538 631.700320
      6      7      8     1   109.3600470 637.306880
      6     17     16     1   108.9900469 602.412320
      7      6     17     1   120.2100513 666.009120
      7      8      9     1   126.6500546 629.357280
      7      8     16     1   110.4800471 695.464480
      8      9     10     1   112.6300483 543.920000
      8     16     17     1   106.7500460 609.274080
      9      8     16     1   126.6500546 629.357280
      9     10     11     1   107.6200464 648.017920
     10     11     12     1   113.6000487 739.145440
     11     12     13     1   107.6200464 648.017920
     12     13     14     1   107.6200464 648.017920
     13     14     15     1   113.6000487 739.145440
     18      2     19     1   120.2100513 1326.328000
      2      3     20     1   107.0700458 360.660800
      2      3     21     1   107.0700458 360.660800
      3      4     22     1   109.6800468 362.083360
      3      4     23     1   109.6800468 362.083360
      4      3     20     1   109.5900471 362.167040
      4      3     21     1   109.5900471 362.167040
      4      5     24     1   109.5900471 362.167040
      4      5     25     1   109.5900471 362.167040
      5      4     22     1   109.6800468 362.083360
      5      4     23     1   109.6800468 362.083360
      6      5     24     1   108.7600467 402.500800
      6      5     25     1   108.7600467 402.500800
      6      7     26     1   121.7800520 400.241440
      6     17     39     1   120.1700514 402.333440
      8      7     26     1   121.7800520 400.241440
      8      9     27     1   108.7600467 402.500800
      8      9     28     1   108.7600467 402.500800
      8     16     38     1   121.0100517 401.580320
      9     10     29     1   109.5900471 362.167040
      9     10     30     1   109.5900471 362.167040
     10      9     27     1   109.5900471 362.167040
     10      9     28     1   109.5900471 362.167040
     11     10     29     1   110.3400472 470.281600
     11     10     30     1   110.3400472 470.281600
     11     12     31     1   110.3400472 470.281600
     11     12     32     1   110.3400472 470.281600
     12     13     33     1   109.5900471 362.167040
     12     13     34     1   109.5900471 362.167040
     13     12     31     1   109.5900471 362.167040
     13     12     32     1   109.5900471 362.167040
     14     13     33     1   110.3400472 470.281600
     14     13     34     1   110.3400472 470.281600
     14     15     35     1   110.3400472 470.281600
     14     15     36     1   110.3400472 470.281600
     14     15     37     1   110.3400472 470.281600
     16     17     39     1   127.6400546 369.865600
     17     16     38     1   129.1100552 367.773600
     20      3     21     1   108.5500468 298.235520
     22      4     23     1   107.7300462 299.574400
     24      5     25     1   108.5500468 298.235520
     27      9     28     1   108.5500468 298.235520
     29     10     30     1   108.5500468 298.235520
     31     12     32     1   108.5500468 298.235520
     33     13     34     1   108.5500468 298.235520
     35     15     36     1   108.5500468 298.235520
     35     15     37     1   108.5500468 298.235520
     36     15     37     1   108.5500468 298.235520

[ dihedrals ]
;    ai     aj     ak     al funct         c0         c1         c2         c3         c4         c5
      1      2      3      4     1  0.0000000  0.6043556  3
      2      3      4      5     1  0.0000000  0.6508444  3
      3      4      5      6     1  0.0000000  0.6508444  3
      4      3      2     18     1  0.0000000  0.6043556  3
      4      3      2     19     1  0.0000000  0.6043556  3
      4      5      6      7     1  0.0000000  0.0000000  2
      4      5      6     17     1  0.0000000  0.0000000  2
      5      6      7      8     1  180.0000771  7.1128000  2
      5      6     17     16     1  180.0000771  7.1128000  2
      6      7      8      9     1  180.0000771  7.1128000  2
      6      7      8     16     1  180.0000771  7.1128000  2
      6     17     16      8     1  180.0000771  16.7360000  2
      7      6     17     16     1  180.0000771  7.1128000  2
      7      8      9     10     1  0.0000000  0.0000000  2
      7      8     16     17     1  180.0000771  7.1128000  2
      8      7      6     17     1  180.0000771  7.1128000  2
      8      9     10     11     1  0.0000000  0.6508444  3
      9      8     16     17     1  180.0000771  7.1128000  2
      9     10     11     12     1  180.0000771  3.6819200  1
      9     10     11     12     1  0.0000000  0.3347200  2
      9     10     11     12     1  0.0000000  3.1380000  3
     10      9      8     16     1  0.0000000  0.0000000  2
     10     11     12     13     1  180.0000771  3.6819200  1
     10     11     12     13     1  0.0000000  0.3347200  2
     10     11     12     13     1  0.0000000  3.1380000  3
     11     12     13     14     1  0.0000000  0.7531200  1
     11     12     13     14     1  0.0000000  3.7656000  2
     11     12     13     14     1  0.0000000  2.0920000  3
     12     13     14     15     1  180.0000771  3.6819200  1
     12     13     14     15     1  0.0000000  0.3347200  2
     12     13     14     15     1  0.0000000  3.1380000  3
      5      7      6     17     4  180.0000771  4.6024000  2
      9      7      8     16     4  180.0000771  4.6024000  2
      1      2      3     20     1  0.0000000  0.6043556  3
      1      2      3     21     1  0.0000000  0.6043556  3
      2      3      4     22     1  0.0000000  0.6508444  3
      2      3      4     23     1  0.0000000  0.6508444  3
      3      4      5     24     1  0.0000000  0.6508444  3
      3      4      5     25     1  0.0000000  0.6508444  3
      5      4      3     20     1  0.0000000  0.6508444  3
      5      4      3     21     1  0.0000000  0.6508444  3
      5      6      7     26     1  180.0000771  7.1128000  2
      5      6     17     39     1  180.0000771  7.1128000  2
      6      5      4     22     1  0.0000000  0.6508444  3
      6      5      4     23     1  0.0000000  0.6508444  3
      6     17     16     38     1  180.0000771  16.7360000  2
      7      6      5     24     1  0.0000000  0.0000000  2
      7      6      5     25     1  0.0000000  0.0000000  2
      7      6     17     39     1  180.0000771  7.1128000  2
      7      8      9     27     1  0.0000000  0.0000000  2
      7      8      9     28     1  0.0000000  0.0000000  2
      7      8     16     38     1  180.0000771  7.1128000  2
      8      9     10     29     1  0.0000000  0.6508444  3
      8      9     10     30     1  0.0000000  0.6508444  3
      8     16     17     39     1  180.0000771  16.7360000  2
      9      8      7     26     1  180.0000771  7.1128000  2
      9      8     16     38     1  180.0000771  7.1128000  2
     10     11     12     31     1  0.0000000  1.4100080  3
     10     11     12     32     1  0.0000000  1.4100080  3
     11     10      9     27     1  0.0000000  1.0460000  1
     11     10      9     27     1  0.0000000  0.0000000  3
     11     10      9     28     1  0.0000000  1.0460000  1
     11     10      9     28     1  0.0000000  0.0000000  3
     11     12     13     33     1  0.0000000  1.0460000  1
     11     12     13     33     1  0.0000000  0.0000000  3
     11     12     13     34     1  0.0000000  1.0460000  1
     11     12     13     34     1  0.0000000  0.0000000  3
     12     11     10     29     1  0.0000000  1.4100080  3
     12     11     10     30     1  0.0000000  1.4100080  3
     13     14     15     35     1  0.0000000  1.4100080  3
     13     14     15     36     1  0.0000000  1.4100080  3
     13     14     15     37     1  0.0000000  1.4100080  3
     14     13     12     31     1  0.0000000  1.0460000  1
     14     13     12     31     1  0.0000000  0.0000000  3
     14     13     12     32     1  0.0000000  1.0460000  1
     14     13     12     32     1  0.0000000  0.0000000  3
     15     14     13     33     1  0.0000000  1.4100080  3
     15     14     13     34     1  0.0000000  1.4100080  3
     16      8      7     26     1  180.0000771  7.1128000  2
     16      8      9     27     1  0.0000000  0.0000000  2
     16      8      9     28     1  0.0000000  0.0000000  2
     17      6      5     24     1  0.0000000  0.0000000  2
     17      6      5     25     1  0.0000000  0.0000000  2
     17      6      7     26     1  180.0000771  7.1128000  2
     18      2      3     20     1  0.0000000  0.6043556  3
     18      2      3     21     1  0.0000000  0.6043556  3
     19      2      3     20     1  0.0000000  0.6043556  3
     19      2      3     21     1  0.0000000  0.6043556  3
     20      3      4     22     1  0.0000000  0.6508444  3
     20      3      4     23     1  0.0000000  0.6508444  3
     21      3      4     22     1  0.0000000  0.6508444  3
     21      3      4     23     1  0.0000000  0.6508444  3
     22      4      5     24     1  0.0000000  0.6508444  3
     22      4      5     25     1  0.0000000  0.6508444  3
     23      4      5     24     1  0.0000000  0.6508444  3
     23      4      5     25     1  0.0000000  0.6508444  3
     27      9     10     29     1  0.0000000  0.6508444  3
     27      9     10     30     1  0.0000000  0.6508444  3
     28      9     10     29     1  0.0000000  0.6508444  3
     28      9     10     30     1  0.0000000  0.6508444  3
     31     12     13     33     1  0.0000000  0.6508444  3
     31     12     13     34     1  0.0000000  0.6508444  3
     32     12     13     33     1  0.0000000  0.6508444  3
     32     12     13     34     1  0.0000000  0.6508444  3
     38     16     17     39     1  180.0000771  16.7360000  2
     26      6      7      8     4  180.0000771  4.6024000  2
     17     38     16      8     4  180.0000771  4.6024000  2
     16     39     17      6     4  180.0000771  4.6024000  2
