GROningen MAchine for Chemical Simulation
   39
    1ZIL     O1    1  -0.356   0.293  -0.172
    1ZIL     S1    2  -0.288   0.315  -0.300
    1ZIL     C1    3  -0.122   0.348  -0.249
    1ZIL     C2    4  -0.071   0.251  -0.144
    1ZIL     C3    5  -0.099   0.104  -0.176
    1ZIL     N1    6  -0.032   0.016  -0.080
    1ZIL     C4    7   0.077  -0.056  -0.106
    1ZIL     N2    8   0.106  -0.127   0.005
    1ZIL     C5    9   0.220  -0.219   0.018
    1ZIL     C6   10   0.325  -0.168   0.117
    1ZIL     O2   11   0.279  -0.174   0.252
    1ZIL     C7   12   0.305  -0.300   0.315
    1ZIL     C8   13   0.260  -0.295   0.461
    1ZIL     O3   14   0.285  -0.418   0.527
    1ZIL     C9   15   0.179  -0.511   0.515
    1ZIL    C10   16   0.011  -0.100   0.102
    1ZIL    C11   17  -0.077  -0.010   0.049
    1ZIL     O4   18  -0.271   0.194  -0.381
    1ZIL     O5   19  -0.326   0.435  -0.373
    1ZIL     H1   20  -0.059   0.345  -0.339
    1ZIL     H2   21  -0.119   0.450  -0.210
    1ZIL     H3   22   0.037   0.266  -0.130
    1ZIL     H4   23  -0.117   0.275  -0.047
    1ZIL     H5   24  -0.206   0.079  -0.171
    1ZIL     H6   25  -0.062   0.079  -0.276
    1ZIL     H7   26   0.132  -0.057  -0.199
    1ZIL     H8   27   0.265  -0.230  -0.081
    1ZIL     H9   28   0.180  -0.316   0.048
    1ZIL    H10   29   0.419  -0.224   0.106
    1ZIL    H11   30   0.347  -0.063   0.095
    1ZIL    H12   31   0.252  -0.380   0.262
    1ZIL    H13   32   0.412  -0.323   0.311
    1ZIL    H14   33   0.155  -0.265   0.469
    1ZIL    H15   34   0.317  -0.217   0.513
    1ZIL    H16   35   0.088  -0.471   0.560
    1ZIL    H17   36   0.161  -0.536   0.410
    1ZIL    H18   37   0.206  -0.602   0.568
    1ZIL    H19   38   0.018  -0.148   0.198
    1ZIL    H20   39  -0.165   0.039   0.084
   1.27463   1.55281   1.44867
