Noncovalent CAT/ANI pair, initial separation 2.0 nm
   41
    1CAT     C1    1   1.097   2.553   2.519
    1CAT     C2    2   1.224   2.600   2.452
    1CAT     N1    3   1.271   2.501   2.354
    1CAT     C3    4   1.233   2.497   2.226
    1CAT     N2    5   1.296   2.394   2.168
    1CAT     C4    6   1.281   2.353   2.026
    1CAT     C5    7   1.214   2.216   2.013
    1CAT     O1    8   1.304   2.117   2.064
    1CAT     C6    9   1.245   1.987   2.072
    1CAT     C7   10   1.338   1.898   2.157
    1CAT     O2   11   1.343   1.945   2.292
    1CAT     C8   12   1.244   1.885   2.375
    1CAT     C9   13   1.378   2.332   2.261
    1CAT    C10   14   1.362   2.399   2.379
    1CAT     H1   15   1.018   2.537   2.445
    1CAT     H2   16   1.062   2.628   2.591
    1CAT     H3   17   1.113   2.459   2.572
    1CAT     H4   18   1.207   2.695   2.399
    1CAT     H5   19   1.303   2.616   2.526
    1CAT     H6   20   1.163   2.564   2.178
    1CAT     H7   21   1.221   2.429   1.975
    1CAT     H8   22   1.381   2.353   1.982
    1CAT     H9   23   1.121   2.214   2.069
    1CAT    H10   24   1.194   2.194   1.907
    1CAT    H11   25   1.146   1.994   2.119
    1CAT    H12   26   1.235   1.946   1.971
    1CAT    H13   27   1.307   1.793   2.153
    1CAT    H14   28   1.440   1.905   2.117
    1CAT    H15   29   1.253   1.927   2.475
    1CAT    H16   30   1.260   1.777   2.381
    1CAT    H17   31   1.144   1.906   2.337
    1CAT    H18   32   1.438   2.247   2.232
    1CAT    H19   33   1.403   2.388   2.477
    2ANI     C1   34   3.212   2.297   2.187
    2ANI     S1   35   3.289   2.203   2.315
    2ANI     O1   36   3.316   2.303   2.418
    2ANI     O2   37   3.186   2.105   2.350
    2ANI     O3   38   3.407   2.147   2.249
    2ANI     H1   39   3.121   2.343   2.226
    2ANI     H2   40   3.282   2.374   2.153
    2ANI     H3   41   3.187   2.230   2.104
   4.50000   4.50000   4.50000
