integrator               = md
dt                       = 0.001
nsteps                   = 1
continuation             = yes
constraints              = none
cutoff-scheme            = Verlet
nstlist                  = 1
rlist                    = 4.0
vdwtype                  = Cut-off
rvdw                     = 4.0
vdw-modifier             = None
DispCorr                 = no
coulombtype              = Cut-off
rcoulomb                 = 4.0
coulomb-modifier         = None
pbc                      = xyz
comm-mode                = None
nstenergy                = 1
nstlog                   = 1
nstxout                  = 1
nstvout                  = 0
nstfout                  = 1
nstxout-compressed       = 0
