GROningen MAchine for Chemical Simulation
    8
    1ANI     C1    1  -0.115   0.165  -0.173
    1ANI     S1    2  -0.038   0.071  -0.045
    1ANI     O1    3  -0.011   0.171   0.058
    1ANI     O2    4  -0.141  -0.027  -0.010
    1ANI     O3    5   0.080   0.015  -0.111
    1ANI     H1    6  -0.206   0.211  -0.134
    1ANI     H2    7  -0.045   0.242  -0.207
    1ANI     H3    8  -0.140   0.098  -0.256
   0.78570   0.76930   0.81390
